Program Version,EnergyPlus, Version 9.5.0-de239b2e5f, YMD=2023.12.06 16:29
1,5,Environment Title[],Latitude[deg],Longitude[deg],Time Zone[],Elevation[m]
2,8,Day of Simulation[],Month[],Day of Month[],DST Indicator[1=yes 0=no],Hour[],StartMinute[],EndMinute[],DayType
3,5,Cumulative Day of Simulation[],Month[],Day of Month[],DST Indicator[1=yes 0=no],DayType  ! When Daily Meters Requested
4,2,Cumulative Days of Simulation[],Month[]  ! When Monthly Meters Requested
5,1,Cumulative Days of Simulation[] ! When Run Period Meters Requested
6,1,Calendar Year of Simulation[] ! When Annual Meters Requested
50,9,InteriorLights:Electricity [J] !Monthly [Value,Min,Day,Hour,Minute,Max,Day,Hour,Minute]
87,9,InteriorEquipment:Electricity [J] !Monthly [Value,Min,Day,Hour,Minute,Max,Day,Hour,Minute]
205,9,Fans:Electricity [J] !Monthly [Value,Min,Day,Hour,Minute,Max,Day,Hour,Minute]
720,9,Heating:Electricity [J] !Monthly [Value,Min,Day,Hour,Minute,Max,Day,Hour,Minute]
682,9,Cooling:Electricity [J] !Monthly [Value,Min,Day,Hour,Minute,Max,Day,Hour,Minute]
541,9,ElectricityNet:Facility [J] !Monthly [Value,Min,Day,Hour,Minute,Max,Day,Hour,Minute]
End of Data Dictionary
1,INTERNATIONAL FALLS INTL AP ANN HTG 99.6% CONDNS DB HVAC Sizing Pass 1,  48.57, -93.40,  -6.00, 359.00
4,1, 1
50,0.0,0.0,21, 1,15,0.0,21, 1,15
87,4389041.095890413,45719.17808219178,21, 1,15,45719.17808219178,21, 1,15
205,20239889.536219926,210832.18266895726,21, 1,15,210832.18266895726,21, 1,15
541,1059555701.6364734,9821680.42223742,21, 1,15,11861793.580474228,21,24,15
682,0.0,0.0,21, 1,15,0.0,21, 1,15
720,1027824280.13026,9555229.061486273,21, 1,15,11192865.480995596,21,24,60
1,INTERNATIONAL FALLS INTL AP ANN HTG 99% CONDNS DB HVAC Sizing Pass 1,  48.57, -93.40,  -6.00, 359.00
4,1, 1
50,0.0,0.0,21, 1,15,0.0,21, 1,15
87,4389041.095890413,45719.17808219178,21, 1,15,45719.17808219178,21, 1,15
205,20239889.536219926,210832.18266895726,21, 1,15,210832.18266895726,21, 1,15
541,961179555.8252978,8800854.452982817,21, 1,15,10836216.362930416,21,24,15
682,0.0,0.0,21, 1,15,0.0,21, 1,15
720,929448133.8147521,8534403.09223167,21, 1,15,10167242.601070222,21,24,60
1,INTERNATIONAL FALLS INTL AP ANN CLG .4% CONDNS DB=>MWB HVAC Sizing Pass 1,  48.57, -93.40,  -6.00, 359.00
4,1, 7
50,0.0,0.0,21, 1,15,0.0,21, 1,15
87,70954051.33685301,739104.7014255518,21, 1,15,739104.7014255518,21, 1,15
205,3401326.724365716,16990.108200000002,21, 1,15,43412.143083070296,21, 8,30
541,60817184.422956358,-466910.46763715668,21,12,45,1949789.7150431462,21,19,45
682,40635687.394020009,0.0,21, 1,15,970902.5857537858,21,16,45
720,0.0,0.0,21, 1,15,0.0,21, 1,15
1,INTERNATIONAL FALLS INTL AP ANN CLG 1% CONDNS DB=>MWB HVAC Sizing Pass 1,  48.57, -93.40,  -6.00, 359.00
4,1, 7
50,0.0,0.0,21, 1,15,0.0,21, 1,15
87,70954051.33685301,739104.7014255518,21, 1,15,739104.7014255518,21, 1,15
205,3216372.4801842237,16990.108200000002,21, 1,15,43412.143083070296,21, 9,30
541,50704008.34112668,-649562.2930432938,21,12,60,1829590.7724900493,21,19,30
682,30914551.429817209,0.0,21, 1,15,812411.1795399097,21,17,15
720,0.0,0.0,21, 1,15,0.0,21, 1,15
1,INTERNATIONAL FALLS INTL AP ANN HTG 99.6% CONDNS DB,  48.57, -93.40,  -6.00, 359.00
4,1, 1
50,0.0,0.0,21, 1,15,0.0,21, 1,15
87,4389041.095890413,45719.17808219178,21, 1,15,45719.17808219178,21, 1,15
205,20239889.536219926,210832.18266895726,21, 1,15,210832.18266895726,21, 1,15
541,1061046713.6943178,9839404.827486339,21, 1,15,11876262.973864938,21,24,15
682,0.0,0.0,21, 1,15,0.0,21, 1,15
720,1029315292.1667966,9572953.466735192,21, 1,15,11207367.765342806,21,24,60
1,INTERNATIONAL FALLS INTL AP ANN HTG 99% CONDNS DB,  48.57, -93.40,  -6.00, 359.00
4,1, 1
50,0.0,0.0,21, 1,15,0.0,21, 1,15
87,4389041.095890413,45719.17808219178,21, 1,15,45719.17808219178,21, 1,15
205,20239889.536219926,210832.18266895726,21, 1,15,210832.18266895726,21, 1,15
541,961177421.9062594,8800829.053256665,21, 1,15,10836195.60199399,21,24,15
682,0.0,0.0,21, 1,15,0.0,21, 1,15
720,929445999.8956448,8534377.692505517,21, 1,15,10167221.8057744,21,24,60
1,INTERNATIONAL FALLS INTL AP ANN CLG .4% CONDNS DB=>MWB,  48.57, -93.40,  -6.00, 359.00
4,1, 7
50,0.0,0.0,21, 1,15,0.0,21, 1,15
87,70954051.33685301,739104.7014255518,21, 1,15,739104.7014255518,21, 1,15
205,3401326.724365716,16990.108200000002,21, 1,15,43412.143083070296,21, 8,30
541,60817182.311374228,-466910.50525724279,21,12,45,1949789.692362352,21,19,45
682,40635685.282571878,0.0,21, 1,15,970902.5538777929,21,16,45
720,0.0,0.0,21, 1,15,0.0,21, 1,15
1,INTERNATIONAL FALLS INTL AP ANN CLG 1% CONDNS DB=>MWB,  48.57, -93.40,  -6.00, 359.00
4,1, 7
50,0.0,0.0,21, 1,15,0.0,21, 1,15
87,70954051.33685301,739104.7014255518,21, 1,15,739104.7014255518,21, 1,15
205,3216372.4801842237,16990.108200000002,21, 1,15,43412.143083070296,21, 9,30
541,50704008.33907497,-649562.2930705239,21,12,60,1829590.7724546858,21,19,30
682,30914551.4277654,0.0,21, 1,15,812411.179516254,21,17,15
720,0.0,0.0,21, 1,15,0.0,21, 1,15
1,ANNUAL,  48.57, -93.40,  -6.00, 359.00
4,31, 1
50,219639774.06886206,14170.308004442802, 1, 1,15,226724.92807108485, 1,21,15
87,1166566162.6372848,95718.73441333045, 1, 4,15,876438.6073308148, 1,20,15
205,626264635.3457325,43412.143083070296,29,15,15,210832.18266895726, 1, 1,15
541,20037754370.932157,1233860.5246045027,29,13,30,12722739.121919245, 6, 8,60
682,0.0,0.0, 1, 1,15,0.0, 1, 1,15
720,18893410049.892816,1557971.1188532105,29,15,60,12160587.34597968, 6, 5,60
4,59, 2
50,198384312.06219838,14170.308004442802, 1, 1,15,226724.92807108485, 1,21,15
87,1053672663.0272216,95718.73441333045, 1, 4,15,876438.6073308148, 1,20,15
205,512472814.18836,43412.143083070296, 4,12,15,210832.18266895726, 1, 1,15
541,14104566356.602828,-1314207.2292869606,28,15,45,12163302.602844265,14, 7,60
682,0.0,0.0, 1, 1,15,0.0, 1, 1,15
720,13425087791.863038,66541.98846964026,28,17,15,11405841.942083143,14, 7,60
4,90, 3
50,219639774.06886206,14170.308004442802, 1, 1,15,226724.92807108485, 1,21,15
87,1166566162.6372848,95718.73441333045, 1, 4,15,876438.6073308148, 1,20,15
205,541491398.3184552,16990.108200000002,19,17,15,210832.18266895726, 1, 1,15
541,11182665461.902878,-1905533.1389445225,26,14,15,10518171.985738803, 5, 7,45
682,0.0,0.0, 1, 1,15,0.0, 1, 1,15
720,10455002463.118376,0.0,19,17,15,9789539.907021987, 5, 7,60
4,120, 4
50,212554620.06664083,14170.308004442802, 1, 1,15,226724.92807108485, 1,21,15
87,1128934996.100597,95718.73441333045, 1, 4,15,876438.6073308148, 1,20,15
205,257874314.95142085,16990.108200000002, 6,17,30,210832.18266895726, 1,17,60
541,4150797287.862591,-2000589.7040052019,10,13,30,6343425.705085011, 5, 6,45
682,0.0,0.0, 1, 1,15,0.0, 1, 1,15
720,3809549932.8496596,0.0, 6,17,30,5711292.506132728, 5, 5,60
4,151, 5
50,219639774.06886206,14170.308004442802, 1, 1,15,226724.92807108485, 1,21,15
87,1166566162.6372848,95718.73441333045, 1, 4,15,876438.6073308148, 1,20,15
205,82921605.55472605,16990.108200000002, 1,13,45,210832.18266895726, 1, 1,15
541,748226451.5810645,-1856658.7061795414, 1,13,30,3656436.9151178735, 1, 5,60
682,100368981.00307071,0.0, 1, 1,15,927621.2572238774,25,19,15
720,418633259.8838664,0.0, 1,13,45,3190456.8588584039, 1, 5,60
4,181, 6
50,212554620.06664083,14170.308004442802, 1, 1,15,226724.92807108485, 1,21,15
87,1128934996.100597,95718.73441333045, 1, 4,15,876438.6073308148, 1,20,15
205,74988427.91210415,16990.108200000002, 1, 1,15,43412.143083070296, 1, 3,45
541,768663559.1106125,-1559767.45838753,16,13,30,2537190.485728667,29,19,15
682,460303126.800182,0.0, 1, 1,15,1588057.8779397056,29,19,15
720,20240449.625113254,0.0, 1, 1,15,1179875.777970241, 4, 5,60
4,212, 7
50,219639774.06886206,14170.308004442802, 1, 1,15,226724.92807108485, 1,21,15
87,1166566162.6372848,95718.73441333045, 1, 4,15,876438.6073308148, 1,20,15
205,93924275.97112927,16990.108200000002, 1, 1,15,43412.143083070296, 1, 9,15
541,1046747445.5780841,-1383235.5747772488,10,12,15,2237279.394039859,28,20,15
682,812273765.5315436,0.0, 1, 1,15,1296259.3718921729,23,17,15
720,0.0,0.0, 1, 1,15,0.0, 1, 1,15
4,243, 8
50,219639774.06886206,14170.308004442802, 1, 1,15,226724.92807108485, 1,21,15
87,1166566162.6372848,95718.73441333045, 1, 4,15,876438.6073308148, 1,20,15
205,81584690.69279202,16990.108200000002, 1, 1,15,43412.143083070296, 1,12,45
541,791456099.8319339,-1640233.4243492448,19,13,30,2117453.4748479605, 8,19,15
682,466819734.9594936,0.0, 1, 1,15,1249540.6425213908, 8,17,15
720,2488909.44729155,0.0, 1, 1,15,386130.62554796048,19, 5,60
4,273, 9
50,212554620.06664083,14170.308004442802, 1, 1,15,226724.92807108485, 1,21,15
87,1128934996.100597,95718.73441333045, 1, 4,15,876438.6073308148, 1,20,15
205,69334079.05949971,16990.108200000002, 1, 1,15,43412.143083070296, 1, 9,30
541,622157305.3521803,-1884463.5482124664,13,13,30,1843810.99148654, 1,19,15
682,54339322.70862395,0.0, 1, 1,15,896446.5716189107, 1,17,15
720,168030460.0131253,0.0, 1, 1,15,1116339.2523831854,21, 3,15
4,304,10
50,219639774.06886206,14170.308004442802, 1, 1,15,226724.92807108485, 1,21,15
87,1166566162.6372848,95718.73441333045, 1, 4,15,876438.6073308148, 1,20,15
205,183025061.96136055,16990.108200000002, 1, 1,15,210832.18266895726, 1, 6,60
541,3636488834.591359,-1860239.4090134027,18,13,15,5376273.058503777,30, 7,60
682,0.0,0.0, 1, 1,15,0.0, 1, 1,15
720,2821738808.2702429,0.0, 1, 1,15,4874753.083589174,30, 4,60
4,334,11
50,212554620.06664083,14170.308004442802, 1, 1,15,226724.92807108485, 1,21,15
87,1128934996.100597,95718.73441333045, 1, 4,15,876438.6073308148, 1,20,15
205,441584628.9106011,16990.108200000002, 1,12,60,210832.18266895726, 2,24,60
541,9063113852.769698,-1385515.5580483068,17,13,30,8057071.842853875,29, 6,60
682,0.0,0.0, 1, 1,15,0.0, 1, 1,15
720,7863993201.926649,0.0, 1,12,60,7402539.217079369,29, 4,60
4,365,12
50,219639774.06886206,14170.308004442802, 1, 1,15,226724.92807108485, 1,21,15
87,1166566162.6372848,95718.73441333045, 1, 4,15,876438.6073308148, 1,20,15
205,624514939.6333838,43412.143083070296,17,12,45,210832.18266895726, 1, 1,15
541,19161484838.685926,1205220.8833968424,28,12,30,11834378.893027582,24, 8,60
682,0.0,0.0, 1, 1,15,0.0, 1, 1,15
720,17794112904.23941,1948660.2424063646,28,15,30,11061412.385307743,24, 8,60
End of Data
 Number of Records Written=         120
